         Total DFT energy =      -75.844353825920

 Vector   16  Occ=0.000000D+00  E= 1.711573D+00  Symmetry=b2

 Vector   17  Occ=0.000000D+00  E= 2.223380D+00  Symmetry=a1

 Vector   18  Occ=0.000000D+00  E= 2.523918D+00  Symmetry=b1

 Vector   19  Occ=0.000000D+00  E= 3.478284D+00  Symmetry=a1

@ Step       Energy      Delta E   Gmax     Grms     Xrms     Xmax   Walltime
@ ---- ---------------- -------- -------- -------- -------- -------- --------
@    0     -75.84435383  0.0D+00  0.01812  0.01479  0.00000  0.00000      0.6
         Total DFT energy =      -75.844858386977

 Vector    1  Occ=2.000000D+00  E=-1.860301D+01  Symmetry=a1

 Vector    2  Occ=2.000000D+00  E=-8.923130D-01  Symmetry=a1

 Vector    3  Occ=2.000000D+00  E=-4.586147D-01  Symmetry=b1

 Vector    4  Occ=2.000000D+00  E=-3.097681D-01  Symmetry=a1

 Vector    5  Occ=2.000000D+00  E=-2.287936D-01  Symmetry=b2

 Vector    6  Occ=0.000000D+00  E= 3.461455D-02  Symmetry=a1

 Vector    7  Occ=0.000000D+00  E= 1.160362D-01  Symmetry=b1

 Vector    8  Occ=0.000000D+00  E= 7.332488D-01  Symmetry=b1

 Vector    9  Occ=0.000000D+00  E= 7.933575D-01  Symmetry=a1

 Vector   10  Occ=0.000000D+00  E= 8.288377D-01  Symmetry=b2

 Vector   11  Occ=0.000000D+00  E= 8.455845D-01  Symmetry=a1

 Vector   12  Occ=0.000000D+00  E= 9.928539D-01  Symmetry=b1

 Vector   13  Occ=0.000000D+00  E= 1.131519D+00  Symmetry=a1

 Vector   14  Occ=0.000000D+00  E= 1.664641D+00  Symmetry=a1

 Vector   15  Occ=0.000000D+00  E= 1.679633D+00  Symmetry=a2

 Vector   16  Occ=0.000000D+00  E= 1.715669D+00  Symmetry=b2

 Vector   17  Occ=0.000000D+00  E= 2.192219D+00  Symmetry=a1

 Vector   18  Occ=0.000000D+00  E= 2.478355D+00  Symmetry=b1

 Vector   19  Occ=0.000000D+00  E= 3.464779D+00  Symmetry=a1

         Total DFT energy =      -75.844970109295

 Vector    1  Occ=2.000000D+00  E=-1.860171D+01  Symmetry=a1

 Vector    2  Occ=2.000000D+00  E=-8.955760D-01  Symmetry=a1

 Vector    3  Occ=2.000000D+00  E=-4.613264D-01  Symmetry=b1

 Vector    4  Occ=2.000000D+00  E=-3.100434D-01  Symmetry=a1

 Vector    5  Occ=2.000000D+00  E=-2.294648D-01  Symmetry=b2

 Vector    6  Occ=0.000000D+00  E= 3.720656D-02  Symmetry=a1

 Vector    7  Occ=0.000000D+00  E= 1.193298D-01  Symmetry=b1

 Vector    8  Occ=0.000000D+00  E= 7.364842D-01  Symmetry=b1

 Vector    9  Occ=0.000000D+00  E= 7.996110D-01  Symmetry=a1

 Vector   10  Occ=0.000000D+00  E= 8.287378D-01  Symmetry=b2

 Vector   11  Occ=0.000000D+00  E= 8.471662D-01  Symmetry=a1

 Vector   12  Occ=0.000000D+00  E= 9.946233D-01  Symmetry=b1

 Vector   13  Occ=0.000000D+00  E= 1.133067D+00  Symmetry=a1

 Vector   14  Occ=0.000000D+00  E= 1.662930D+00  Symmetry=a1

 Vector   15  Occ=0.000000D+00  E= 1.677785D+00  Symmetry=a2

 Vector   16  Occ=0.000000D+00  E= 1.714432D+00  Symmetry=b2

 Vector   17  Occ=0.000000D+00  E= 2.201691D+00  Symmetry=a1

 Vector   18  Occ=0.000000D+00  E= 2.492289D+00  Symmetry=b1

 Vector   19  Occ=0.000000D+00  E= 3.468882D+00  Symmetry=a1

@    1     -75.84497011 -6.2D-04  0.00121  0.00070  0.01400  0.02686      1.0
         Total DFT energy =      -75.844986225491

 Vector    1  Occ=2.000000D+00  E=-1.860218D+01  Symmetry=a1

 Vector    2  Occ=2.000000D+00  E=-8.960934D-01  Symmetry=a1

 Vector    3  Occ=2.000000D+00  E=-4.599612D-01  Symmetry=b1

 Vector    4  Occ=2.000000D+00  E=-3.115635D-01  Symmetry=a1

 Vector    5  Occ=2.000000D+00  E=-2.296772D-01  Symmetry=b2

 Vector    6  Occ=0.000000D+00  E= 3.690799D-02  Symmetry=a1

 Vector    7  Occ=0.000000D+00  E= 1.188775D-01  Symmetry=b1

 Vector    8  Occ=0.000000D+00  E= 7.336388D-01  Symmetry=b1

 Vector    9  Occ=0.000000D+00  E= 8.004660D-01  Symmetry=a1

 Vector   10  Occ=0.000000D+00  E= 8.285625D-01  Symmetry=b2

 Vector   11  Occ=0.000000D+00  E= 8.485106D-01  Symmetry=a1

 Vector   12  Occ=0.000000D+00  E= 9.938142D-01  Symmetry=b1

 Vector   13  Occ=0.000000D+00  E= 1.135669D+00  Symmetry=a1

 Vector   14  Occ=0.000000D+00  E= 1.660674D+00  Symmetry=a1

 Vector   15  Occ=0.000000D+00  E= 1.678459D+00  Symmetry=a2

 Vector   16  Occ=0.000000D+00  E= 1.713570D+00  Symmetry=b2

 Vector   17  Occ=0.000000D+00  E= 2.200956D+00  Symmetry=a1

 Vector   18  Occ=0.000000D+00  E= 2.490414D+00  Symmetry=b1

 Vector   19  Occ=0.000000D+00  E= 3.467343D+00  Symmetry=a1

         Total DFT energy =    -75.844986225491
@    2     -75.84498623 -1.6D-05  0.00008  0.00005  0.00423  0.00683      1.4
         Total DFT energy =      -75.844986300788

                       DFT Final Molecular Orbital Analysis
                       ------------------------------------

 Vector    1  Occ=2.000000D+00  E=-1.860221D+01  Symmetry=a1

 Vector    2  Occ=2.000000D+00  E=-8.961189D-01  Symmetry=a1

 Vector    3  Occ=2.000000D+00  E=-4.598487D-01  Symmetry=b1

 Vector    4  Occ=2.000000D+00  E=-3.116744D-01  Symmetry=a1

 Vector    5  Occ=2.000000D+00  E=-2.296885D-01  Symmetry=b2

 Vector    6  Occ=0.000000D+00  E= 3.688057D-02  Symmetry=a1

 Vector    7  Occ=0.000000D+00  E= 1.188369D-01  Symmetry=b1

 Vector    8  Occ=0.000000D+00  E= 7.334233D-01  Symmetry=b1

 Vector    9  Occ=0.000000D+00  E= 8.005110D-01  Symmetry=a1

 Vector   10  Occ=0.000000D+00  E= 8.285517D-01  Symmetry=b2

 Vector   11  Occ=0.000000D+00  E= 8.486071D-01  Symmetry=a1

 Vector   12  Occ=0.000000D+00  E= 9.937519D-01  Symmetry=b1

 Vector   13  Occ=0.000000D+00  E= 1.135865D+00  Symmetry=a1

 Vector   14  Occ=0.000000D+00  E= 1.660514D+00  Symmetry=a1

 Vector   15  Occ=0.000000D+00  E= 1.678516D+00  Symmetry=a2

 Vector   16  Occ=0.000000D+00  E= 1.713512D+00  Symmetry=b2

 Vector   17  Occ=0.000000D+00  E= 2.200887D+00  Symmetry=a1

 Vector   18  Occ=0.000000D+00  E= 2.490229D+00  Symmetry=b1

 Vector   19  Occ=0.000000D+00  E= 3.467219D+00  Symmetry=a1

     Multipole analysis of the density
     ---------------------------------

     L   x y z        total         alpha         beta         nuclear
     -   - - -        -----         -----         ----         -------
     0   0 0 0     -0.000000     -5.000000     -5.000000     10.000000

     1   1 0 0      0.000000      0.000000      0.000000      0.000000
     1   0 1 0     -0.000000     -0.000000     -0.000000      0.000000
     1   0 0 1      0.844460      0.498662      0.498662     -0.152864

     2   2 0 0     -3.186656     -3.696200     -3.696200      4.205745
     2   1 1 0     -0.000000     -0.000000     -0.000000      0.000000
     2   1 0 1      0.000000      0.000000      0.000000      0.000000
     2   0 2 0     -5.412756     -2.706378     -2.706378      0.000000
     2   0 1 1     -0.000000     -0.000000     -0.000000      0.000000

         Total DFT energy =    -75.844986300788
@    3     -75.84498630 -7.5D-08  0.00000  0.00000  0.00031  0.00052      1.7
@    3     -75.84498630 -7.5D-08  0.00000  0.00000  0.00031  0.00052      1.7

 Output coordinates in angstroms (scale by  1.889725989 to convert to a.u.)

  No.       Tag          Charge          X              Y              Z
 ---- ---------------- ---------- -------------- -------------- --------------
    1 O                    8.0000     0.00000000     0.00000000    -0.12875599
    2 H                    1.0000    -0.76737498     0.00000000     0.47457800
    3 H                    1.0000     0.76737498     0.00000000     0.47457800

 Total times  cpu:        2.6s     wall:        1.7s
