 Output coordinates in angstroms (scale by  1.889725989 to convert to a.u.)

  No.       Tag          Charge          X              Y              Z
 ---- ---------------- ---------- -------------- -------------- --------------
    1 O                    8.0000     0.00000000     0.00000000    -0.11720000
    2 H                    1.0000    -0.75700000     0.00000000     0.46880000
    3 H                    1.0000     0.75700000     0.00000000     0.46880000

         Total SCF energy =    -74.962946646661

 Vector    2  Occ=2.000000D+00  E=-1.268358D+00  Symmetry=a1

 Vector    3  Occ=2.000000D+00  E=-6.178634D-01  Symmetry=b1

 Vector    4  Occ=2.000000D+00  E=-4.529975D-01  Symmetry=a1

 Vector    5  Occ=2.000000D+00  E=-3.912398D-01  Symmetry=b2

 Vector    6  Occ=0.000000D+00  E= 6.055768D-01  Symmetry=a1

 Vector    7  Occ=0.000000D+00  E= 7.422458D-01  Symmetry=b1

       Multipole analysis of the density wrt the origin
       ------------------------------------------------

     L   x y z        total         open         nuclear
     -   - - -        -----         ----         -------
     0   0 0 0     -0.000000      0.000000     10.000000

     1   1 0 0     -0.000000      0.000000      0.000000
     1   0 1 0      0.000000      0.000000      0.000000
     1   0 0 1      0.678967      0.000000      0.000000

     2   2 0 0     -3.239837      0.000000      4.092790
     2   1 1 0     -0.000000      0.000000      0.000000
     2   1 0 1     -0.000000      0.000000      0.000000
     2   0 2 0     -4.531057      0.000000      0.000000
     2   0 1 1      0.000000      0.000000      0.000000

 Total times  cpu:        0.7s     wall:        0.2s
